# vtk DataFile Version 2.0
VTK from Matlab
ASCII
DATASET UNSTRUCTURED_GRID
POINTS 3034 float
0.00 -0.50 0.00 0.00 0.50 0.00 2.00 0.90 0.00 2.10 0.66 0.00 2.00 -0.90 0.00 2.10 -0.66 0.00 -0.80 0.50 -0.00 -0.80 -0.50 -0.00 2.60 1.15 0.00 2.70 0.91 0.00 2.60 -1.15 0.00 2.70 -0.91 0.00 0.04 0.50 0.00 0.08 0.50 0.00 0.12 0.50 0.00 0.16 0.50 0.00 0.20 0.50 0.00 0.24 0.51 0.00 0.28 0.51 0.00 0.32 0.51 0.00 0.36 0.51 0.00 0.39 0.51 0.00 0.43 0.52 0.00 0.47 0.52 0.00 0.51 0.53 0.00 0.55 0.53 0.00 0.59 0.53 0.00 0.63 0.54 0.00 0.67 0.54 0.00 0.71 0.55 0.00 0.75 0.55 0.00 0.79 0.56 0.00 0.83 0.57 0.00 0.86 0.57 0.00 0.90 0.58 0.00 0.94 0.59 0.00 0.98 0.59 0.00 1.02 0.60 0.00 1.06 0.61 0.00 1.10 0.62 0.00 1.14 0.63 0.00 1.17 0.63 0.00 1.21 0.64 0.00 1.25 0.65 0.00 1.29 0.66 0.00 1.33 0.67 0.00 1.37 0.68 0.00 1.40 0.69 0.00 1.44 0.70 0.00 1.48 0.71 0.00 1.52 0.73 0.00 1.56 0.74 0.00 1.59 0.75 0.00 1.63 0.76 0.00 1.67 0.77 0.00 1.70 0.79 0.00 1.74 0.80 0.00 1.78 0.81 0.00 1.82 0.83 0.00 1.85 0.84 0.00 1.89 0.86 0.00 1.93 0.87 0.00 1.96 0.88 0.00 0.04 -0.50 0.00 0.08 -0.50 0.00 0.12 -0.50 0.00 0.16 -0.50 0.00 0.20 -0.50 0.00 0.24 -0.51 0.00 0.28 -0.51 0.00 0.32 -0.51 0.00 0.36 -0.51 0.00 0.39 -0.51 0.00 0.43 -0.52 0.00 0.47 -0.52 0.00 0.51 -0.53 0.00 0.55 -0.53 0.00 0.59 -0.53 0.00 0.63 -0.54 0.00 0.67 -0.54 0.00 0.71 -0.55 0.00 0.75 -0.55 0.00 0.79 -0.56 0.00 0.83 -0.57 0.00 0.86 -0.57 0.00 0.90 -0.58 0.00 0.94 -0.59 0.00 0.98 -0.59 0.00 1.02 -0.60 0.00 1.06 -0.61 0.00 1.10 -0.62 0.00 1.14 -0.63 0.00 1.17 -0.63 0.00 1.21 -0.64 0.00 1.25 -0.65 0.00 1.29 -0.66 0.00 1.33 -0.67 0.00 1.37 -0.68 0.00 1.40 -0.69 0.00 1.44 -0.70 0.00 1.48 -0.71 0.00 1.52 -0.73 0.00 1.56 -0.74 0.00 1.59 -0.75 0.00 1.63 -0.76 0.00 1.67 -0.77 0.00 1.70 -0.79 0.00 1.74 -0.80 0.00 1.78 -0.81 0.00 1.82 -0.83 0.00 1.85 -0.84 0.00 1.89 -0.86 0.00 1.93 -0.87 0.00 1.96 -0.88 0.00 2.06 -0.64 0.00 2.03 -0.63 0.00 2.00 -0.61 0.00 1.96 -0.58 0.00 1.93 -0.56 0.00 1.90 -0.54 0.00 1.87 -0.51 0.00 1.85 -0.48 0.00 1.82 -0.45 0.00 1.80 -0.42 0.00 1.77 -0.39 0.00 1.75 -0.36 0.00 1.74 -0.32 0.00 1.72 -0.29 0.00 1.70 -0.25 0.00 1.69 -0.21 0.00 1.68 -0.17 0.00 1.67 -0.14 0.00 1.67 -0.10 0.00 1.66 -0.06 0.00 1.66 -0.02 0.00 1.66 0.02 0.00 1.66 0.06 0.00 1.67 0.10 0.00 1.67 0.14 0.00 1.68 0.17 0.00 1.69 0.21 0.00 1.70 0.25 0.00 1.72 0.29 0.00 1.74 0.32 0.00 1.75 0.36 0.00 1.77 0.39 0.00 1.80 0.42 0.00 1.82 0.45 0.00 1.85 0.48 0.00 1.87 0.51 0.00 1.90 0.54 0.00 1.93 0.56 0.00 1.96 0.58 0.00 2.00 0.61 0.00 2.03 0.63 0.00 2.06 0.64 0.00 -0.04 0.50 -0.00 -0.08 0.50 -0.00 -0.12 0.50 -0.00 -0.16 0.50 -0.00 -0.20 0.50 -0.00 -0.24 0.50 -0.00 -0.28 0.50 -0.00 -0.32 0.50 -0.00 -0.36 0.50 -0.00 -0.40 0.50 -0.00 -0.44 0.50 -0.00 -0.48 0.50 -0.00 -0.52 0.50 -0.00 -0.56 0.50 -0.00 -0.60 0.50 -0.00 -0.64 0.50 -0.00 -0.68 0.50 -0.00 -0.72 0.50 -0.00 -0.76 0.50 -0.00 -0.80 0.46 -0.00 -0.80 0.42 -0.00 -0.80 0.38 -0.00 -0.80 0.34 -0.00 -0.80 0.30 -0.00 -0.80 0.26 -0.00 -0.80 0.22 -0.00 -0.80 0.18 -0.00 -0.80 0.14 -0.00 -0.80 0.10 -0.00 -0.80 0.06 -0.00 -0.80 0.02 -0.00 -0.80 -0.02 -0.00 -0.80 -0.06 -0.00 -0.80 -0.10 -0.00 -0.80 -0.14 -0.00 -0.80 -0.18 -0.00 -0.80 -0.22 -0.00 -0.80 -0.26 -0.00 -0.80 -0.30 -0.00 -0.80 -0.34 -0.00 -0.80 -0.38 -0.00 -0.80 -0.42 -0.00 -0.80 -0.46 -0.00 -0.76 -0.50 -0.00 -0.72 -0.50 -0.00 -0.68 -0.50 -0.00 -0.64 -0.50 -0.00 -0.60 -0.50 -0.00 -0.56 -0.50 -0.00 -0.52 -0.50 -0.00 -0.48 -0.50 -0.00 -0.44 -0.50 -0.00 -0.40 -0.50 -0.00 -0.36 -0.50 -0.00 -0.32 -0.50 -0.00 -0.28 -0.50 -0.00 -0.24 -0.50 -0.00 -0.20 -0.50 -0.00 -0.16 -0.50 -0.00 -0.12 -0.50 -0.00 -0.08 -0.50 -0.00 -0.04 -0.50 -0.00 2.04 0.91 0.00 2.07 0.93 0.00 2.11 0.94 0.00 2.14 0.96 0.00 2.18 0.97 0.00 2.21 0.99 0.00 2.25 1.00 0.00 2.28 1.02 0.00 2.32 1.03 0.00 2.35 1.05 0.00 2.39 1.06 0.00 2.42 1.08 0.00 2.46 1.09 0.00 2.49 1.11 0.00 2.53 1.12 0.00 2.56 1.14 0.00 2.61 1.12 0.00 2.63 1.08 0.00 2.64 1.05 0.00 2.66 1.01 0.00 2.67 0.98 0.00 2.69 0.94 0.00 2.66 0.90 0.00 2.63 0.88 0.00 2.59 0.87 0.00 2.56 0.85 0.00 2.52 0.84 0.00 2.49 0.82 0.00 2.45 0.81 0.00 2.42 0.79 0.00 2.38 0.78 0.00 2.35 0.76 0.00 2.31 0.75 0.00 2.28 0.73 0.00 2.24 0.72 0.00 2.21 0.70 0.00 2.17 0.69 0.00 2.14 0.67 0.00 2.14 -0.67 0.00 2.17 -0.69 0.00 2.21 -0.70 0.00 2.24 -0.72 0.00 2.28 -0.73 0.00 2.31 -0.75 0.00 2.35 -0.76 0.00 2.38 -0.78 0.00 2.42 -0.79 0.00 2.45 -0.81 0.00 2.49 -0.82 0.00 2.52 -0.84 0.00 2.56 -0.85 0.00 2.59 -0.87 0.00 2.63 -0.88 0.00 2.66 -0.90 0.00 2.69 -0.94 0.00 2.67 -0.98 0.00 2.66 -1.01 0.00 2.64 -1.05 0.00 2.63 -1.08 0.00 2.61 -1.12 0.00 2.56 -1.14 0.00 2.53 -1.12 0.00 2.49 -1.11 0.00 2.46 -1.09 0.00 2.42 -1.08 0.00 2.39 -1.06 0.00 2.35 -1.05 0.00 2.32 -1.03 0.00 2.28 -1.02 0.00 2.25 -1.00 0.00 2.21 -0.99 0.00 2.18 -0.97 0.00 2.14 -0.96 0.00 2.11 -0.94 0.00 2.07 -0.93 0.00 2.04 -0.91 0.00 1.06 -0.00 0.00 0.54 0.01 0.00 0.02 0.00 0.00 -0.38 0.08 -0.00 1.32 0.28 0.00 1.32 -0.28 0.00 0.80 0.22 0.00 0.80 -0.22 0.00 0.29 0.19 0.00 0.27 -0.18 0.00 -0.23 -0.19 -0.00 1.38 0.00 0.00 -0.51 -0.17 -0.00 -0.14 0.22 -0.00 1.04 -0.33 0.00 1.04 0.33 0.00 0.54 0.26 0.00 0.54 -0.26 0.00 1.51 0.45 0.00 1.51 -0.45 0.00 0.02 -0.26 0.00 -0.56 0.26 -0.00 0.08 0.28 0.00 0.84 -0.00 0.00 -0.59 0.03 -0.00 -0.19 0.02 -0.00 -0.34 0.29 -0.00 1.48 0.17 0.00 1.48 -0.16 0.00 0.34 -0.00 0.00 1.20 0.44 0.00 1.20 -0.44 0.00 1.67 0.57 0.00 1.67 -0.57 0.00 1.16 0.17 0.00 1.16 -0.17 0.00 -0.39 -0.30 -0.00 0.87 -0.39 0.00 0.87 0.39 0.00 0.98 0.16 0.00 0.97 -0.16 0.00 0.70 0.35 0.00 0.69 -0.36 0.00 -0.62 -0.32 -0.00 0.37 0.33 0.00 0.38 -0.34 0.00 0.18 -0.33 0.00 0.69 0.08 0.00 0.65 -0.13 0.00 -0.13 -0.33 -0.00 -0.36 -0.09 -0.00 0.18 0.05 0.00 0.44 0.14 0.00 0.44 -0.13 0.00 1.36 -0.51 0.00 1.36 0.51 0.00 0.13 -0.13 0.00 -0.08 -0.12 -0.00 0.22 0.35 0.00 1.22 0.02 0.00 1.55 0.30 0.00 1.56 -0.30 0.00 1.80 -0.66 0.00 1.80 0.66 0.00 -0.01 0.15 -0.00 -0.06 0.35 -0.00 1.30 -0.13 0.00 -0.65 -0.11 -0.00 1.32 0.13 0.00 -0.21 0.35 -0.00 1.52 -0.03 0.00 -0.66 0.16 -0.00 -0.66 0.36 -0.00 1.07 -0.47 0.00 1.07 0.47 0.00 -0.26 0.14 -0.00 1.92 -0.72 0.00 1.92 0.72 0.00 -0.46 0.36 -0.00 2.53 0.99 0.00 2.54 -0.98 0.00 1.53 0.59 0.00 1.53 -0.59 0.00 1.18 -0.31 0.00 1.18 0.31 0.00 1.64 -0.44 0.00 1.64 0.44 0.00 2.06 0.79 0.00 2.06 -0.79 0.00 2.21 -0.85 0.00 2.21 0.85 0.00 2.38 -0.92 0.00 2.39 0.92 0.00 0.66 0.21 0.00 0.57 0.40 0.00 0.56 -0.40 0.00 1.44 0.35 0.00 1.43 -0.34 0.00 -0.26 -0.37 -0.00 -0.51 0.13 -0.00 0.57 0.13 0.00 -0.50 -0.37 -0.00 0.06 -0.38 0.00 0.15 0.18 0.00 -0.47 -0.02 -0.00 0.93 0.28 0.00 0.94 -0.28 0.00 0.24 -0.07 0.00 0.77 -0.09 0.00 0.95 0.04 0.00 1.32 0.40 0.00 1.32 -0.40 0.00 0.68 -0.24 0.00 0.86 0.11 0.00 0.28 -0.39 0.00 0.95 0.47 0.00 0.95 -0.47 0.00 -0.68 -0.22 -0.00 -0.45 0.23 -0.00 0.11 0.39 0.00 -0.08 0.05 -0.00 -0.34 -0.20 -0.00 0.77 -0.44 0.00 0.77 0.44 0.00 1.55 0.08 0.00 -0.26 -0.07 -0.00 0.65 -0.02 0.00 0.88 -0.10 0.00 0.54 -0.11 0.00 1.25 -0.54 0.00 1.25 0.54 0.00 1.07 -0.22 0.00 1.07 0.22 0.00 1.07 -0.11 0.00 1.07 0.11 0.00 0.43 -0.24 0.00 0.43 0.24 0.00 0.45 0.41 0.00 0.46 -0.41 0.00 -0.29 0.03 -0.00 -0.69 -0.01 -0.00 0.18 -0.22 0.00 0.08 0.09 0.00 -0.08 -0.23 -0.00 -0.69 0.25 -0.00 1.58 0.20 0.00 1.58 -0.20 0.00 -0.31 0.39 -0.00 1.70 0.67 0.00 1.70 -0.67 0.00 0.79 -0.32 0.00 0.79 0.32 0.00 0.03 -0.16 0.00 -0.05 -0.40 -0.00 1.77 -0.56 0.00 1.77 0.56 0.00 -0.70 -0.40 -0.00 1.43 -0.59 0.00 1.43 0.59 0.00 -0.25 0.25 -0.00 0.98 -0.06 0.00 1.16 -0.06 0.00 0.30 0.41 0.00 0.28 0.08 0.00 0.44 0.04 0.00 1.40 -0.10 0.00 -0.48 -0.27 -0.00 2.31 -0.86 0.00 2.29 0.91 0.00 -0.56 -0.07 -0.00 0.34 -0.10 0.00 -0.35 0.19 -0.00 -0.03 0.25 -0.00 1.38 -0.20 0.00 1.42 0.25 0.00 -0.56 0.39 -0.00 1.45 0.07 0.00 0.29 -0.29 0.00 1.15 -0.53 0.00 1.15 0.53 0.00 -0.15 0.12 -0.00 0.12 -0.02 0.00 1.25 0.21 0.00 1.25 -0.21 0.00 0.74 -0.00 0.00 1.13 0.38 0.00 1.13 -0.38 0.00 0.30 0.29 0.00 -0.28 -0.27 -0.00 -0.35 -0.39 -0.00 1.60 0.65 0.00 1.60 -0.65 0.00 1.60 0.52 0.00 1.60 -0.52 0.00 1.57 -0.10 0.00 1.64 0.33 0.00 1.64 -0.33 0.00 0.01 0.40 0.00 1.47 -0.26 0.00 0.96 -0.38 0.00 0.96 0.38 0.00 0.64 0.44 0.00 0.64 -0.44 0.00 -0.11 -0.03 -0.00 1.42 0.44 0.00 1.42 -0.44 0.00 1.29 -0.04 0.00 -0.59 -0.23 -0.00 -0.59 -0.41 -0.00 0.86 -0.48 0.00 0.86 0.48 0.00 0.20 0.25 0.00 1.97 0.79 0.00 1.97 -0.79 0.00 -0.13 0.41 -0.00 0.62 0.30 0.00 0.89 -0.20 0.00 2.47 0.90 0.00 2.44 -0.99 0.00 0.77 0.13 0.00 -0.18 -0.41 -0.00 0.14 -0.41 0.00 0.61 -0.32 0.00 2.11 0.87 0.00 2.15 -0.76 0.00 2.16 0.78 0.00 2.12 -0.86 0.00 -0.17 -0.12 -0.00 0.89 0.20 0.00 1.83 0.74 0.00 1.83 -0.74 0.00 -0.43 -0.16 -0.00 0.48 -0.32 0.00 0.47 0.33 0.00 2.47 -0.91 0.00 2.44 0.99 0.00 1.73 -0.47 0.00 1.73 0.47 0.00 1.23 0.11 0.00 1.89 -0.64 0.00 1.89 0.64 0.00 -0.71 0.08 -0.00 0.36 -0.42 0.00 0.11 -0.27 0.00 2.01 -0.71 0.00 2.01 0.71 0.00 -0.70 -0.31 -0.00 1.14 0.05 0.00 0.47 -0.05 0.00 0.59 -0.19 0.00 1.57 0.38 0.00 1.57 -0.38 0.00 0.36 0.19 0.00 0.37 -0.19 0.00 0.36 0.09 0.00 1.30 0.04 0.00 0.07 0.19 0.00 -0.19 -0.27 -0.00 -0.04 -0.31 -0.00 -0.14 0.31 -0.00 -0.39 0.41 -0.00 1.39 0.16 0.00 2.29 0.82 0.00 2.30 -0.94 0.00 0.51 0.19 0.00 -0.39 -0.00 -0.00 0.60 0.05 0.00 0.73 -0.18 0.00 0.50 -0.19 0.00 0.71 0.28 0.00 1.33 -0.59 0.00 1.33 0.59 0.00 1.26 0.34 0.00 1.26 -0.34 0.00 0.19 0.42 0.00 1.49 0.25 0.00 1.46 0.50 0.00 1.46 -0.50 0.00 -0.01 -0.07 -0.00 -0.71 0.43 -0.00 -0.59 0.11 -0.00 0.25 0.01 0.00 0.51 0.07 0.00 0.09 -0.20 0.00 1.22 -0.11 0.00 0.21 -0.15 0.00 0.38 0.43 0.00 -0.43 -0.42 -0.00 0.87 -0.27 0.00 0.86 0.27 0.00 1.62 0.27 0.00 1.62 -0.27 0.00 0.15 0.31 0.00 -0.48 -0.08 -0.00 -0.72 -0.14 -0.00 -0.42 0.15 -0.00 -0.09 0.16 -0.00 2.61 0.95 0.00 2.56 1.06 0.00 2.56 -1.06 0.00 2.61 -0.95 0.00 1.29 0.47 0.00 1.29 -0.47 0.00 0.23 0.13 0.00 1.40 -0.28 0.00 -0.46 0.07 -0.00 1.76 0.72 0.00 1.76 -0.72 0.00 1.02 0.52 0.00 1.02 -0.52 0.00 1.37 0.08 0.00 1.14 0.25 0.00 1.14 -0.25 0.00 1.58 0.01 0.00 0.01 0.34 0.00 -0.14 -0.20 -0.00 0.07 -0.08 0.00 0.59 0.20 0.00 2.23 -0.93 0.00 2.36 0.84 0.00 -0.01 0.07 -0.00 -0.29 -0.14 -0.00 -0.54 -0.30 -0.00 0.80 0.06 0.00 0.64 0.14 0.00 0.36 -0.26 0.00 1.48 -0.09 0.00 -0.06 0
[...]
POINT_DATA 3034
SCALARS magnitude float
LOOKUP_TABLE default
0.00 0.00 0.00 0.00 0.00 0.00 0.00 0.00 0.00 0.00 0.00 0.00 0.00 0.00 0.00 0.00 0.00 0.00 0.00 0.00 0.00 0.00 0.00 0.00 0.00 0.00 0.00 0.00 0.00 0.00 0.00 0.00 0.00 0.00 0.00 0.00 0.00 0.00 0.00 0.00 0.00 0.00 0.00 0.00 0.00 0.00 0.00 0.00 0.00 0.00 0.00 0.00 0.00 0.00 0.00 0.00 0.00 0.00 0.00 0.00 0.00 0.00 0.00 0.00 0.00 0.00 0.00 0.00 0.00 0.00 0.00 0.00 0.00 0.00 0.00 0.00 0.00 0.00 0.00 0.00 0.00 0.00 0.00 0.00 0.00 0.00 0.00 0.00 0.00 0.00 0.00 0.00 0.00 0.00 0.00 0.00 0.00 0.00 0.00 0.00 0.00 0.00 0.00 0.00 0.00 0.00 0.00 0.00 0.00 0.00 0.00 0.00 0.00 0.00 0.00 0.00 0.00 0.00 0.00 0.00 0.00 0.00 0.00 0.00 0.00 0.00 0.00 0.00 0.00 0.00 0.00 0.00 0.00 0.00 0.00 0.00 0.00 0.00 0.00 0.00 0.00 0.00 0.00 0.00 0.00 0.00 0.00 0.00 0.00 0.00 0.00 0.00 0.00 0.00 0.00 0.00 0.00 0.00 0.00 0.00 0.00 0.00 0.00 0.00 0.00 0.00 0.00 0.00 0.00 0.00 0.00 0.00 0.00 0.00 0.00 153.60 294.40 422.40 537.60 640.00 729.60 806.40 870.40 921.60 960.00 985.60 998.40 998.40 985.60 960.00 921.60 870.40 806.40 729.60 640.00 537.60 422.40 294.40 153.60 0.00 0.00 0.00 0.00 0.00 0.00 0.00 0.00 0.00 0.00 0.00 0.00 0.00 0.00 0.00 0.00 0.00 0.00 0.00 0.00 0.00 0.00 0.00 0.00 0.00 0.00 0.00 0.00 0.00 0.00 0.00 0.00 0.00 0.00 0.00 1222.32 1326.16 1412.52 1455.58 1467.87 1619.57 0.00 0.00 0.00 0.00 0.00 0.00 0.00 0.00 0.00 0.00 0.00 0.00 0.00 0.00 0.00 0.00 0.00 0.00 0.00 0.00 0.00 0.00 0.00 0.00 0.00 0.00 0.00 0.00 0.00 0.00 0.00 0.00 1605.43 1463.04 1465.42 1403.50 1316.96 1242.41 0.00 0.00 0.00 0.00 0.00 0.00 0.00 0.00 0.00 0.00 0.00 0.00 0.00 0.00 0.00 0.00 895.23 982.67 997.31 970.58 607.63 655.51 794.82 785.66 852.20 862.13 858.96 606.68 882.27 807.47 580.92 588.91 726.28 726.38 666.63 668.49 737.22 737.40 696.17 957.10 996.16 997.27 660.83 484.26 523.10 993.01 399.85 386.09 872.88 866.39 779.77 779.72 629.55 409.42 414.41 842.51 838.96 498.84 472.22 592.92 565.18 549.00 560.33 942.88 909.81 570.31 969.69 984.19 917.48 918.48 372.28 373.39 932.47 935.99 521.86 808.29 573.42 563.39 1036.23 1037.45 912.07 502.53 701.87 952.83 705.62 506.40 342.95 901.30 475.33 235.90 242.65 922.17 1205.91 1222.20 476.29 1453.68 1430.04 513.67 509.16 618.05 626.55 878.71 870.48 1364.14 1382.29 1402.25 1458.59 1396.62 1411.31 812.58 356.95 375.23 596.12 597.23 444.12 928.09 919.18 448.14 427.43 870.80 998.42 674.66 673.81 972.81 934.19 926.89 540.09 525.34 749.53 904.92 391.59 178.82 169.97 802.17 780.41 403.56 987.53 841.77 234.03 239.34 390.48 976.88 976.58 910.68 940.70 166.49 172.53 741.91 755.90 857.83 848.36 759.64 760.42 326.42 323.50 996.14 999.37 800.81 965.52 780.06 751.79 448.17 598.56 382.40 745.22 741.74 580.26 586.65 897.89 360.90 1150.18 1142.68 374.60 365.91 367.65 746.76 914.44 833.91 345.87 966.84 984.64 620.94 715.40 1385.23 1361.01 980.38 951.89 859.24 748.79 631.19 632.38 377.24 511.97 661.38 114.36 121.29 938.39 995.60 719.00 709.70 969.11 477.37 477.57 670.97 699.08 381.37 561.45 561.69 759.46 767.78 217.23 878.97 874.32 354.47 559.25 467.15 478.50 241.62 227.10 993.06 617.71 609.27 750.91 790.46 324.39 118.02 123.11 752.56 1219.12 1216.05 337.03 633.91 811.90 1479.94 1335.94 907.61 339.24 336.27 587.39 1384.20 1427.22 1539.78 1286.86 942.66 813.98 1023.23 1000.47 901.00 573.78 578.05 1482.55 1367.57 1089.70 1065.89 763.31 1084.85 1017.82 971.61 282.39 695.63 1429.41 1402.14 614.26 854.42 978.92 851.67 716.62 727.20 854.14 854.28 963.79 734.64 853.67 708.64 621.52 619.82 325.87 629.45 1468.36 1316.41 841.01 999.02 967.97 848.63 839.93 692.62 176.19 182.83 582.74 578.70 292.05 640.01 499.08 500.80 977.14 270.80 950.27 994.38 966.37 842.51 758.10 907.78 248.42 281.61 702.55 698.72 625.66 597.15 625.32 972.24 920.79 908.69 892.71 1477.21 1333.60 1336.04 1462.39 384.77 383.68 927.28 602.32 981.41 801.95 793.14 62.19 55.35 583.77 700.09 713.22 267.54 545.84 839.07 972.18 821.15 1264.34 1526.40 976.33 915.93 631.49 942.11 896.84 718.85 516.78 286.10 865.33 906.60 250.65 1063.35 1065.10 683.36 575.44 273.05 594.93 951.91 632.50 855.62 981.09 979.43 425.15 419.87 994.09 684.33 697.11 938.31 776.57 343.55 345.06 659.43 522.26 680.94 682.58 255.50 624.48 191.11 185.47 603.37 257.54 96.00 99.41 723.04 877.57 248.27 1389.61 1295.14 1385.25 1323.74 979.52 58.94 52.28 964.28 615.11 835.08 959.49 953.81 257.81 289.64 302.61 958.46 250.20 902.37 847.17 834.74 857.52 741.46 1046.55 1046.14 1365.88 1404.17 922.15 906.27 891.14 993.05 705.25 626.15 606.48 681.94 695.62 701.23 985.39 250.18 515.44 528.33 1159.74 1432.70 1410.78 1263.35 1427.90 1120.73 928.47 934.14 686.44 1495.65 1288.42 1240.32 1470.35 994.53 468.87 560.17 1461.92 975.13 987.87 938.34 997.61 553.57 593.88 605.29 758.10 558.56 952.37 636.19 920.70 772.74 1221.35 564.82 241.55 506.02 139.64 135.49 943.12 592.72 498.85 426.41 413.76 786.46 661.17 999.19 540.91 241.62 670.43 449.40 724.94 218.78 47.87 50.58 655.14 359.03 239.68 982.77 931.70 548.12 423.25 862.99 991.33 767.85 595.18 376.21 375.97 806.63 800.01 560.42 551.13 723.11 730.90 229.20 998.29 525.20 819.75 836.36 965.75 987.94 41.97 38.68 202.82 778.61 762.57 768.00 227.91 508.64 520.44 189.60 502.64 489.02 983.40 74.99 79.99 830.36 526.56 653.33 655.29 524.91 892.17 749.64 191.61 499.81 479.96 628.28 721.37 895.42 920.17 156.34 878.72 786.43 838.41 1427.70 1431.22 826.13 449.95 882.66 436.55 821.52 826.47 608.29 1493.14 1192.56 416.14 414.72 1230.41 1563.22 545.38 228.42 232.32 823.29 651.35 342.51 334.58 992.76 988.71 947.21 424.60 870.42 167.06 171.47 895.48 241.96 247.93 216.88 489.12 209.37 975.98 729.44 734.05 725.38 601.60 996.43 578.11 710.30 564.29 701.44 1087.00 1061.99 553.93 561.51 214.29 873.85 215.34 593.09 597.46 436.26 642.36 775.45 599.54 844.91 1160.73 1144.52 60.09 63.70 916.64 498.59 699.95 571.39 932.64 412.27 931.10 707.63 470.77 434.20 440.73 124.11 640.72 644.43 446.97 385.01 398.33 973.06 497.75 943.60 922.04 309.51 304.08 920.52 979.41 146.42 770.48 844.16 706.98 694.89 802.32 915.56 777.79 968.33 849.53 663.56 629.73 638.63 911.43 883.94 746.43 237.77 244.69 337.77 342.21 692.50 671.96 671.78 850.76 849.48 490.70 455.22 991.28 725.83 871.76 870.76 991.93 953.59 453.55 435.66 407.93 208.46 955.78 1336.26 1494.15 753.65 173.98 741.94 472.76 648.80 188.39 415.65 765.52 920.10 231.80 922.22 987.74 888.24 1375.18 1405.64 963.39 987.18 129.22 188.52 984.22 828.21 998.62 555.97 261.35 254.76 393.54 846.12 840.56 965.31 20.31 17.67 987.32 536.63 1360.47 1466.42 768.31 937.56 1478.96 1149.05 782.18 177.01 181.10 445.63 824.72 824.00 928.40 911.40 916.84 625.02 911.07 1439.88 1406.54 1061.83 1021.64 16.37 14.11 710.01 1125.30 1116.53 489.29 943.47 979.50 991.31 423.60 422.81 747.88 198.21 939.55 663.35 916.65 996.23 644.84 923.89 956.60 734.11 701.03 631.35 703.28 1432.83 1442.21 530.03 872.47 443.00 917.28 915.00 1417.10 1444.65 1468.60 1401.99 452.43 609.91 852.36 774.13 770.71 766.19 1355.15 1336.33 964.18 350.89 360.76 590.31 202.27 1130.62 1131.44 672.52 921.77 940.77 763.07 995.93 959.76 593.44 747.22 705.82 993.97 879.37 958.09 444.96 1243.93 971.23 62.73 72.08 767.75 765.82 565.56 1446.90 1414.07 873.61 198.66 179.82 941.33 955.51 684.79 686.35 776.60 474.32 610.26 697.05 1132.05 1129.29 766.45 777.71 820.09 500.32 503.58 902.18 774.18 154.48 166.25 992.88 1148.29 1599.42 552.48 1599.63 1598.31 1158.21 551.35 200.81 1072.54 1117.72 674.69 44.68 48.59 858.68 988.69 942.79 961.76 600.60 602.29 995.52 530.35 821.46 447.59 546.40 860.69 962.80 191.80 918.09 727.52 669.49 616.25 771.92 709.43 1216.20 1460.16 915.00 958.73 182.16 180.86 907.97 648.89 162.70 573.86 569.97 819.48 785.29 585.06 454.71 794.67 753.27 792.70 972.16 447.40 441.39 438.82 427.82 556.73 380.34 371.33 333.91 327.27 459.42 722.51 762.31 918.34 1248.57 1239.81 622.72 500.92 858.73 622.50 1251.19 1533.86 212.75 203.91 954.42 942.49 977.76 996.91 195.20 797.74 171.58 1378.37 1388.24 180.73 850.83 992.72 885.24 773.61 574.58 867.29 340.04 506.09 519.25 170.04 851.38 855.47 861.09 502.36 492.93 805.89 803.95 634.52 733.53 635.35 633.71 645.89 943.84 924.98 965.67 1644.00 1241.92 895.86 928.09 805.41 896.02 15.56 19.77 680.84 284.69 639.68 948.32 800.33 106.06 433.98 961.53 996.40 948.63 992.67 804.45 951.44 995.20 816.43 1157.59 1137.25 1600.19 1286.04 663.39 681.23 631.65 446.07 1224.76 416.11 1614.16 1646.82 1256.90 1291.55 1597.02 817.04 779.08 425.76 435.57 705.68 666.80 977.09 676.34 128.76 435.34 402.72 984.46 188.54 994.55 930.70 1589.57 1291.30 1279.60 1271.72 612.33 967.39 963.61 3.76 1.80 606.36 856.03 600.52 363.92 368.48 828.88 372.25 861.71 498.92 713.26 998.92 760.59 977.47 415.10 175.96 358.89 350.34 714.75 911.01 902.11 381.93 615.92 631.97 687.14 773.41 748.86 927.37 956.48 958.15 524.29 593.70 1270.77 1259.58 296.58 292.39 824.10 994.38 892.24 951.86 778.13 801.97 798.06 1354.81 1402.69 374.69 431.65 533.06 1311.95 1655.13 647.12 250.33 1389.93 849.46 788.26 695.78 897.72 690.72 911.05 43.84 50.95 456.51 585.80 528.60 842.92 706.59 1010.52 1009.20 325.18 993.97 484.94 170.84 1325.31 1514.70 623.32 744.57 1492.17 1504.48 1380.34 1700.60 1354.07 150.70 186.37 369.43 875.85 1639.95 477.77 320.99 1372.80 1451.59 992.09 869.05 1649.35 1197.02 667.87 677.06 962.50 619.15 620.69 679.94 627.15 955.89 558.00 678.58 685.84 986.04 729.21 1246.64 618.87 781.46 912.44 652.28 977.76 989.33 815.25 1387.49 1467.15 1398.12 1490.37 334.30 962.74 1157.74 1182.38 525.78 507.00 422.12 911.79 149.05 612.21 700.19 359.89 911.28 599.07 66.70 73.50 836.95 837.55 104.53 112.94 635.87 576.25 597.02 22.48 25.10 874.98 587.93 1495.57 1465.81 981.77 984.67 348.34 969.94 65.23 68.47 575.28 717.58 437.66 654.46 1338.61 1339.97 865.71 934.97 635.02 1492.00 1373.30 998.43 570.57 980.01 783.95 594.62 988.60 981.10 826.13 142.89 948.33 454.73 459.77 727.75 434.30 470.66 900.56 1415.40 1443.07 957.06 634.73 544.22 996.59 864.64 943.28 675.78 798.68 412.08 633.32 139.28 933.05 368.90 781.71 64.29 283.99 295.95 952.42 235.59 245.94 529.80 960.06 940.25 94.23 560.01 541.87 462.05 457.49 662.94 669.20 964.49 716.90 696.59 952.43 908.43 151.61 870.24 361.09 666.53 634.60 635.24 824.31 426.62 430.42 728.66 831.74 155.76 1337.96 1469.03 949.50 352.87 993.02 884.47 315.47 316.33 715.94 716.09 1516.00 1347.54 890.72 663.92 602.34 315.43 701.48 454.83 1476.39 238.57 228.40 151.39 1392.33 1519.42 676.84 678.52 1393.33 863.78 1237.41 1591.80 911.37 866.88 762.26 310.52 637.40 996.85 936.34 896.37 996.41 849.05 849.11 807.71 977.63 763.36 769.75 522.49 2.71 1.68 705.60 321.81 996.00 880.41 1701.73 1345.18 839.43 1032.00 1024.42 785.36 147.20 478.85 595.87 1594.84 1282.77 977.24 638.20 286.49 280.45 309.97 647.12 162.81 954.49 923.72 627.69 452.85 440.76 475.63 387.82 383.17 345.28 687.01 147.66 131.27 138.19 870.67 442.55 998.14 951.83 332.23 555.14 615.53 903.29 973.32 947.81 960.59 575.88 988.57 851.34 359.81 853.00 354.81 989.98 710.76 69.59 885.33 1259.24 1251.68 626.99 626.03 786.32 935.35 848.97 497.08 1338.66 1347.25 451.95 151.77 456.16 432.85 989.00 727.09 946.43 1052.83 1050.13 128.77 779.76 674.68 771.01 130.55 621.80 1344.62 4.14 2.59 603.61 785.22 710.05 634.72 958.67 125.11 949.88 625.89 370.90 557.75 458.81 2.11 1.43 16.13 15.56 421.71 490.42 308.42 988.01 1473.12 648.07 257.90 124.44 766.18 126.71 760.15 980.61 664.36 437.21 852.16 387.01 641.06 924.14 132.66 924.02 715.99 709.75 882.01 912.62 674.31 812.82 86.18 631.91 952.29 548.52 915.69 489.68 488.26 837.27 136.34 790.46 655.29 888.38 551.84 919.28 1511.37 1387.24 635.69 912.78 737.58 779.90 772.55 972.24 543.68 559.42 140.08 134.69 633.04 628.95 811.08 1479.28 1394.71 954.48 779.54 920.01 811.33 976.15 579.21 148.07 709.62 791.62 786.83 687.64 611.22 578.00 487.94 774.95 581.59 419.78 433.33 462.20 699.53 992.80 902.40 119.56 997.85 322.25 309.24 795.02 986.36 773.98 709.93 796.63 345.91 815.14 877.12 898.65 723.01 842.66 1129.59 1130.61 561.69 761.73 595.03 981.67 277.64 887.27 998.22 1006.34 717.01 719.51 841.44 965.56 299.52 401.77 806.16 701.71 940.19 550.86 1594.27 1311.21 825.24 582.83 996.97 903.21 1357.30 1333.53 1493.73 1441.66 535.64 528.07 197.77 198.97 473.44 465.95 688.77 455.66 879.31 1747.20 901.96 312.14 317.74 992.25 994.15 821.44 889.63 631.96 773.07 661.73 999.55 5.06 2.98 998.16 496.45 455.72 775.42 777.66 590.48 698.12 692.94 335.75 327.46 996.46 527.90 530.74 190.92 196.15 118.85 898.11 856.56 1454.58 1374.81 833.99 399.69 398.19 308.29 750.88 1267.99 373.51 1452.63 1394.17 521.12 323.76 472.40 468.71 120.27 545.30 548.36 1363.27 1503.99 713.33 926.39 451.61 620.59 875.15 150.29 156.32 898.30 1454.60 1463.10 925.92 532.57 531.30 807.51 1033.07 982.64 96.19 99.63 893.38 579.67 588.39 278.30 994.77 1000.08 883.23 872.98 874.39 1411.64 1357.60 5.71 4.36 309.91 983.30 590.62 1758.33 1014.31 993.74 825.40 1087.55 1059.99 889.06 892.85 542.95 551.48 560.56 753.66 962.81 902.12 459.15 417.93 406.75 408.51 939.29 1108.07 1101.51 274.17 281.93 70.88 66.67 971.47 900.35 838.29 616.87 759.80 118.52 113.15 937.27 719.55 975.22 942.44 540.66 886.48 946.75 359.68 369.70 627.00 617.22 677.82 59.07 790.05 815.70 156.37 148.88 512.83 513.74 918.40 922.25 717.10 827.67 362.27 373.11 538.93 628.31 1179.61 1644.53 340.58 10.98 13.31 699.72 694.01 952.47 855.96 662.50 750.05 1128.51 1687.22 1224.91 1691.11 1772.96 1177.31 566.07 590.36 462.02 463.72 794.73 1576.91 1207.06 815.80 986.04 913.55 343.17 1819.58 1797.21 792.58 794.69 859.88 1035.21 1056.41 540.84 850.12 719.08 667.24 538.47 547.21 564.96 445.40 819.20 946.32 623.65 623.88 935.33 999.43 877.55 615.93 508.70 522.98 898.97 258.06 264.15 328.47 944.68 229.04 234.66 538.51 986.81 563.08 876.57 984.79 668.01 67.25 62.06 972.71 292.49 797.35 792.79 146.21 156.32 535.42 942.69 962.21 702.80 136.59 33.84 30.53 661.47 648.19 48.68 51.30 990.89 358.24 643.79 962.81 690.37 691.35 951.61 10.64 12.29 899.85 716.93 906.21 734.28 755.40 403.77 793.84 343.35 351.51 368.05 943.17 638.76 939.17 334.54 78.67 576.21 873.51 855.99 1563.81 721.53 275.21 393.55 416.34 676.79 412.63 869.58 428.02 436.91 991.61 78.69 82.86 1259.46 1713.61 960.70 298.60 745.44 904.18 319.31 1224.25 1603.20 119.41 123.09 191.30 696.13 579.10 488.45 937.75 601.31 994.00 454.63 889.14 940.39 991.37 972.86 618.37 638.27 631.76 665.47 1232.62 560.75 571.28 805.71 1346.19 122.08 969.57 877.12 644.77 683.45 981.49 457.16 403.09 848.03 425.76 434.69 585.82 942.56 388.39 922.95 987.83 509.22 506.33 495.74 1461.12 1363.14 1276.05 810.43 311.47 717.49 102.74 97.37 1459.98 1442.07 1277.27 1263.90 1518.54 467.45 953.65 395.82 108.53 643.08 944.09 613.19 614.53 586.05 573.81 1311.65 1328.96 792.38 910.49 989.22 671.95 672.54 645.08 651.03 277.10 281.41 125.17 1207.39 1184.00 545.17 568.31 1519.13 572.62 577.11 696.11 860.62 644.75 826.64 823.97 941.09 1491.51 1353.43 927.40 900.44 316.47 999.59 993.87 30.96 34.68 406.48 650.42 936.40 334.33 158.92 383.43 546.54 98.97 481.23 476.05 862.23 981.49 615.56 978.22 974.63 972.98 778.50 3.61 5.93 659.90 569.58 131.98 298.48 425.03 502.82 967.42 599.03 900.79 977.59 991.45 511.48 114.75 1418.75 1335.26 970.92 459.96 825.29 993.07 999.38 731.86 1334.23 849.33 818.68 456.10 912.44 594.54 752.68 225.39 973.35 931.29 83.80 557.28 981.08 356.83 1654.98 1165.26 71.03 65.09 571.49 826.14 605.71 1283.02 1556.26 514.94 899.52 996.95 926.92 485.23 303.20 374.18 587.24 592.69 937.02 1271.17 1700.93 708.73 769.72 770.59 600.89 309.84 532.34 1056.78 1066.71 678.44 800.96 947.62 609.59 452.01 773.86 965.48 499.18 129.22 461.45 712.87 930.60 947.11 979.02 694.66 617.22 701.35 418.77 961.78 561.84 995.92 800.50 753.17 585.80 850.04 842.05 434.51 974.48 618.38 212.90 486.19 612.62 250.96 980.80 446.08 318.28 624.51 616.90 676.24 690.08 907.63 144.34 145.28 331.09 999.71 732.69 275.38 660.77 1228.36 1227.00 976.26 508.54 892.12 706.28 131.63 137.39 1477.44 1374.76 987.69 898.94 469.32 474.14 608.06 791.63 533.28 669.99 432.78 888.81 977.76 674.85 802.38 991.28 792.31 859.38 1339.58 894.03 962.30 982.09 696.68 701.26 531.14 528.06 540.08 820.59 203.22 208.48 1439.92 1427.62 1143.32 746.25 722.07 269.09 493.93 273.39 820.40 641.98 987.69 973.16 897.69 768.21 518.51 902.88 659.45 724.70 713.05 654.82 651.23 744.52 747.40 813.49 387.76 395.10 202.29 720.31 989.48 450.25 444.51 899.51 114.22 415.35 1535.13 650.44 508.19 526.66 653.25 98.99 100.11 738.93 667.31 907.57 638.74 80.88 482.38 965.81 741.84 107.50 870.11 788.39 844.06 991.39 67.09 116.36 979.75 605.65 624.16 242.76 731.93 513.65 858.60 759.22 1177.94 1165.80 815.73 800.66 1123.70 1594.46 874.44 850.80 941.91 946.10 478.83 897.94 973.29 993.95 590.81 671.70 249.49 980.82 234.27 758.71 689.20 963.82 607.22 947.59 739.52 865.36 670.25 670.37 583.59 824.25 361.23 15.30 13.76 809.81 530.38 582.29 340.76 331.40 354.27 610.12 445.55 1253.39 1260.62 450.68 570.46 236.60 883.98 531.06 739.17 678.22 684.03 860.10 557.05 850.21 764.84 529.41 518.43 1476.04 1431.40 1373.21 530.22 65.46 60.53 520.74 944.76 949.40 1279.49 1269.31 394.69 621.44 880.66 972.10 875.59 857.77 305.56 802.44 788.63 114.53 356.02 362.54 998.24 620.87 359.37 366.73 122.88 1047.74 1041.49 794.60 897.24 975.97 679.73 969.05 1011.53 972.01 538.30 764.60 987.69 464.96 783.67 1369.48 1468.83 1354.19 1455.58 808.10 319.07 97.55 652.37 650.81 527.77 594.04 604.58 744.91 763.69 397.81 390.81 830.26 280.17 271.29 837.14 480.16 376.62 3.48 2.52 792.70 628.83 107.11 112.62 644.17 963.35 53.39 699.49 871.64 571.43 782.39 776.33 246.44 236.20 488.41 561.37 564.76 563.60 338.95 885.98 381.71 231.18 234.85 744.21 867.12 871.08 831.57 944.34 17.19 20.08 930.86 898.68 901.62 1490.10 1442.41 392.22 778.14 961.11 1222.78 1288.80 929.00 809.58 983.94 906.39 828.77 230.62 1183.14 1180.51 912.73 731.67 562.15 605.77 646.75 835.64 1144.88 1176.68 685.98 633.03 565.14 204.31 620.04 879.51 330.69 333.74 528.71 1372.89 1391.54 722.44 860.35 647.37 758.24 754.90 1490.75 1368.63 997.89 447.43 441.51 1299.59 700.05 245.33 833.87 969.25 289.56 145.01 823.38 773.62 924.90 744.33 830.46 946.18 1476.22 1349.52 294.15 266.32 697.73 554.32 648.70 592.40 595.72 732.84 264.01 944.84 576.59 585.94 831.39 130.24 846.29 1085.68 1100.30 663.25 479.33 631.80 881.67 937.52 990.12 693.51 879.48 887.69 1127.75 1108.76 118.00 118.55 265.16 617.63 630.99 602.48 728.69 755.12 472.42 756.53 1419.02 1383.40 189.05 195.55 603.91 87.48 543.59 970.21 478.69 969.05 956.07 583.15 455.43 457.29 393.34 884.45 784.52 783.00 593.45 1128.32 1100.14 845.60 258.46 483.75 987.11 1341.02 982.61 273.82 991.98 835.84 959.07 733.79 360.73 935.65 1017.80 856.58 736.57 656.49 711.40 742.53 1439.89 1102.02 388.09 448.21 783.20 909.54 929.55 758.76 77.25 691.31 938.47 878.79 461.52 105.48 536.55 962.97 167.03 988.17 594.75 971.81 400.10 162.90 151.25 261.16 607.00 1158.49 1564.57 981.15 1441.70 1402.19 834.08 868.95 940.81 997.41 482.71 691.37 1433.04 965.64 445.20 459.80 86.58 715.95 637.68 310.65 319.04 418.65 1780.87 1804.63 255.95 256.25 101.21 393.73 826.49 1438.02 950.65 939.47 843.35 115.40 596.50 1514.07 1303.90 1310.75 1525.70 324.84 327.75 1722.73 1772.82 849.92 287.84 1458.31 683.94 697.75 945.51 884.18 1320.46 1526.94 920.69 290.53 293.23 997.13 126.01 129.86 665.22 624.31 1417.63 961.43 566.41 398.86 872.29 1520.76 991.82 812.02 928.67 257.76 646.33 1183.28 1307.90 1504.12 424.41 775.43 956.94 327.91 964.76 919.71 58.35 542.34 947.99 1451.36 1419.48 1390.82 752.00 1264.00 1233.02 768.56 901.48 1269.06 1306.50 1002.98 1027.37 296.02 550.47 567.30 917.57 1156.29 1579.53 1146.28 1493.66 745.39 998.82 53.88 58.75 775.61 781.82 180.29 823.23 42.33 748.29 352.02 986.51 266.66 801.68 809.00 1003.00 1335.95 428.87 425.60 389.96 380.86 967.00 1336.26 1471.32 897.85 758.62 273.01 107.08 112.11 461.51 466.64 831.36 948.26 947.33 795.61 794.58 1592.45 1623.17 921.20 944.26 926.57 1193.02 83.89 223.24 219.79 226.36 936.88 748.63 703.05 998.57 998.52 897.70 600.61 619.13 622.79 687.62 629.50 997.18 1012.73 815.10 765.44 717.30 1571.99 1116.54 731.62 721.85 725.28 723.96 925.63 906.29 667.99 251.22 705.60 677.84 1416.33 1428.63 841.32 108.09 999.26 4.20 5.08 968.00 839.65 680.8